 &FCI NORB=  28,NELEC=14,MS2=0,
  ORBSYM=1,1,1,1,1,1,1,1,1,1,1,1,1,1,1,1,1,1,1,1,1,1,1,1,1,1,1,1,
  ISYM=1,
 &END
 2.152036652209837    1    1    1    1
 -0.0008153137706715739    2    1    1    1
 1.975632154400629    2    1    2    1
 2.152027780536157    2    2    1    1
 0.0008153170608536078    2    2    2    1
 2.152020255018332    2    2    2    2
 -0.2029833551397652    3    1    1    1
 4.197570293767379e-05    3    1    2    1
 -0.2029819973093479    3    1    2    2
 0.03229794496508429    3    1    3    1
 4.19827790886669e-05    3    2    1    1
 -0.2030160880928588    3    2    2    1
 -0.000125580678238533    3    2    2    2
 -2.699143886149808e-08    3    2    3    1
 0.03229753431238694    3    2    3    2
 0.577781786668489    3    3    1    1
 -3.340027825592462e-07    3    3    2    1
 0.5777816796488839    3    3    2    2
 -0.008558314609245018    3    3    3    1
 -1.755126971758447e-06    3    3    3    2
 0.4345596185581406    3    3    3    3
 0.0001271896580613367    4    1    1    1
 -0.2055676360857978    4    1    2    1
 -4.248030798740902e-05    4    1    2    2
 -1.350390396618237e-05    4    1    3    1
 0.03272098369078712    4    1    3    2
 1.804315269245122e-06    4    1    3    3
 0.0331819568798857    4    1    4    1
 -0.2056691457275129    4    2    1    1
 -4.250127140296506e-05    4    2    2    1
 -0.2056679144244863    4    2    2    2
 0.0327209106151936    4    2    3    1
 1.350303907959871e-05    4    2    3    2
 -0.008726417774184333    4    2    3    3
 2.697398303845772e-08    4    2    4    1
 0.03318178676362131    4    2    4    2
 -0.0001667067990430364    4    3    1    1
 0.4039492550523032    4    3    2    1
 0.0001667014764996959    4    3    2    2
 1.801938992380532e-06    4    3    3    1
 -0.008714686669290251    4    3    3    2
 -2.151744952813831e-07    4    3    3    3
 -0.008704218966486784    4    3    4    1
 -1.799556780208682e-06    4    3    4    2
 0.2596803340055042    4    3    4    3
 0.5829553090270473    4    4    1    1
 3.328373280017086e-07    4    4    2    1
 0.5829551184893119    4    4    2    2
 -0.008816574372009884    4    4    3    1
 -1.822730595451506e-06    4    4    3    2
 0.4354455792552844    4    4    3    3
 1.825558365226381e-06    4    4    4    1
 -0.008899542091462761    4    4    4    2
 2.129525839111649e-07    4    4    4    3
 0.4375869382220341    4    4    4    4
 0.01212769252204191    5    1    1    1
 -2.102077315411779e-06    5    1    2    1
 0.0121289911245096    5    1    2    2
 -0.0017155946118827    5    1    3    1
 1.211476547189563e-09    5    1    3    2
 0.001713277672259512    5    1    3    3
 9.600986390644579e-07    5    1    4    1
 -0.002329851455408272    5    1    4    2
 2.036422696818179e-07    5    1    4    3
 0.000159187730808749    5    1    4    4
 0.01091832656734179    5    1    5    1
 -1.702098515711517e-06    5    2    1    1
 0.0101902538594994    5    2    2    1
 6.708916675607731e-06    5    2    2    2
 1.210247946100111e-09    5    2    3    1
 -0.001717467112008923    5    2    3    2
 3.543215748428082e-07    5    2    3    3
 -0.0023269770364757    5    2    4    1
 -9.617092651976722e-07    5    2    4    2
 -0.0009832890174138855    5    2    4    3
 3.212829075404631e-08    5    2    4    4
 7.911873389942598e-09    5    2    5    1
 0.0108762764624629    5    2    5    2
 0.0003389113204188712    5    3    1    1
 1.732363903820625e-08    5    3    2    1
 0.0003396203686298163    5    3    2    2
 0.0005705492521938166    5    3    3    1
 1.174919604057343e-07    5    3    3    2
 0.009498646179738772    5    3    3    3
 3.10259681771728e-08    5    3    4    1
 -0.0001490831322773639    5    3    4    2
 1.74497799344805e-08    5    3    4    3
 0.0005031022126933626    5    3    4    4
 0.01293247393317622    5    3    5    1
 2.662476027111714e-06    5    3    5    2
 0.06828389992087676    5    3    5    3
 1.883888426306182e-05    5    4    1    1
 -0.04565086186954073    5    4    2    1
 -1.884004407177249e-05    5    4    2    2
 -1.650028280267029e-07    5    4    3    1
 0.0008006186725940634    5    4    3    2
 3.193714487186591e-08    5    4    3    3
 0.0001249211765706626    5    4    4    1
 2.610916509331977e-08    5    4    4    2
 -0.03461937564554222    5    4    4    3
 -2.842438571724321e-08    5    4    4    4
 -2.573685930246999e-06    5    4    5    1
 0.01249439813537817    5    4    5    2
 -1.943901105472376e-09    5    4    5    3
 0.06328026171845176    5    4    5    4
 0.5181211165436228    5    5    1    1
 -2.194080270952946e-08    5    5    2    1
 0.518120823921875    5    5    2    2
 -0.004356682299096802    5    5    3    1
 -8.968288635726054e-07    5    5    3    2
 0.4093519656230308    5    5    3    3
 9.131836677563488e-07    5    5    4    1
 -0.004432752727108523    5    5    4    2
 -1.447396087043055e-08    5    5    4    3
 0.4091377569598686    5    5    4    4
 0.0006460782467595668    5    5    5    1
 1.333053959424304e-07    5    5    5    2
 0.01085485282606066    5    5    5    3
 5.739575342571349e-09    5    5    5    4
 0.412302182907317    5    5    5    5
 0.01180591356991314    6    1    6    1
 3.661928256258424e-09    6    2    6    1
 0.01178308502571362    6    2    6    2
 4.00872464808061e-15    6    3    5    4
 0.01368426094988624    6    3    6    1
 2.81687147704242e-06    6    3    6    2
 0.06724818397251985    6    3    6    3
 4.093141947618377e-15    6    4    5    3
 -2.791374394996133e-06    6    4    6    1
 0.01354940769613176    6    4    6    2
 -4.491436160962407e-09    6    4    6    3
 0.06468306756035373    6    4    6    4
 2.195472626884867e-14    6    5    2    1
 1.449498296884867e-14    6    5    4    3
 -1.921583437287744e-15    6    5    5    4
 -0.0005440820661127968    6    5    6    1
 -1.12264666172879e-07    6    5    6    2
 -0.0009397317290487671    6    5    6    3
 -3.055673287713348e-10    6    5    6    4
 0.01630397754903666    6    5    6    5
 0.5275760813993973    6    6    1    1
 -3.016461903434734e-08    6    6    2    1
 0.5275761767090261    6    6    2    2
 -0.004725906668588181    6    6    3    1
 -9.727393506825887e-07    6    6    3    2
 0.4098544716594629    6    6    3    3
 9.947140155349084e-07    6    6    4    1
 -0.004828079437841334    6    6    4    2
 -2.044148440618114e-08    6    6    4    3
 0.4108021634217233    6    6    4    4
 0.001264018725814476    6    6    5    1
 2.60860591330717e-07    6    6    5    2
 0.007899431227954187    6    6    5    3
 5.208729172020176e-09    6    6    5    4
 0.3782266832128505    6    6    5    5
 0.4111357521152215    6    6    6    6
 2.859492801844035e-15    7    1    1    1
 1.620092667468504e-14    7    1    2    1
 2.872090605225344e-15    7    1    2    2
 -2.597925819612292e-15    7    1    3    2
 -1.792322317441543e-15    7    1    4    1
 2.110470216109975e-15    7    1    4    3
 -2.521178886324518e-14    7    1    5    2
 -2.905970970109998e-14    7    1    5    4
 -8.703381412882846e-13    7    1    6    2
 -9.930262506643905e-13    7    1    6    4
 0.01180591356991195    7    1    7    1
 1.42200701696265e-14    7    2    1    1
 2.40058977374001e-15    7    2    2    1
 1.422178253600325e-14    7    2    2    2
 -2.600012214739581e-15    7    2    3    1
 -1.789055256559479e-15    7    2    4    2
 1.204051828827642e-15    7    2    4    4
 -2.522968673973348e-14    7    2    5    1
 -2.900941322681642e-14    7    2    5    3
 1.647615435483002e-15    7    2    5    5
 -8.703377762452563e-13    7    2    6    1
 -9.826008053817622e-13    7    2    6    3
 4.86719496991413e-14    7    2    6    5
 3.664677445290181e-09    7    2    7    1
 0.0117830850257147    7    2    7    2
 -2.242011902590047e-14    7    3    2    1
 2.240816653935688e-15    7    3    3    3
 1.438593377776178e-15    7    3    4    1
 -7.998934472984523e-15    7    3    4    3
 -2.84867231764727e-14    7    3    5    2
 -1.327725944624972e-13    7    3    5    4
 3.015872981833882e-15    7    3    5    5
 -9.825989477376407e-13    7    3    6    2
 -4.643034867779722e-12    7    3    6    4
 1.875883935719067e-15    7    3    6    6
 0.01368426094988555    7    3    7    1
 2.816874580838664e-06    7    3    7    2
 0.06724818397251971    7    3    7    3
 -1.843030884035757e-14    7    4    1    1
 -1.084017273934498e-14    7    4    2    1
 -1.843855008937816e-14    7    4    2    2
 -1.717512738383088e-14    7    4    3    3
 1.14500660744589e-15    7    4    4    2
 -8.20875058846108e-15    7    4    4    3
 -6.92878049648314e-15    7    4    4    4
 -2.887382661689827e-14    7    4    5    1
 -1.366940602816035e-13    7    4    5    3
 -3.670459277923127e-15    7    4    5    5
 -9.930278860008877e-13    7    4    6    1
 -4.643060716866672e-12    7    4    6    3
 2.322104375601905e-13    7    4    6    5
 -1.501243823029231e-14    7    4    6    6
 -2.791371258261204e-06    7    4    7    1
 0.01354940769613236    7    4    7    2
 -4.476769850245861e-09    7    4    7    3
 0.06468306756035359    7    4    7    4
 -2.050863902462491e-15    7    5    1    1
 -7.299922723664491e-13    7    5    2    1
 -2.653421260474272e-15    7    5    2    2
 1.016275203752914e-14    7    5    3    2
 1.01102586368417e-14    7    5    4    1
 -4.818781819420468e-13    7    5    4    3
 1.807502709101055e-15    7    5    5    2
 6.365883103307491e-14    7    5    5    4
 4.867256989728561e-14    7    5    6    2
 2.322198792474864e-13    7    5    6    4
 -0.0005440820661127633    7    5    7    1
 -1.122648199193108e-07    7    5    7    2
 -0.000939731729048761    7    5    7    3
 -3.063008584154325e-10    7    5    7    4
 0.01630397754903665    7    5    7    5
 1.045051979722996e-14    7    6    1    1
 -2.521000501515593e-11    7    6    2    1
 -1.035710576203385e-14    7    6    2    2
 3.502031838581338e-13    7    6    3    2
 3.480130924852427e-13    7    6    4    1
 -1.668026635081165e-11    7    6    4    3
 4.686623758096195e-14    7    6    5    2
 2.082239469807536e-12    7    6    5    4
 -1.012069478077043e-15    7    6    6    2
 -3.568119119441842e-15    7    6    6    4
 0.01631947875305489    7    6    7    6
 0.5275760813993636    7    7    1    1
 -3.008498643586322e-08    7    7    2    1
 0.5275761767090583    7    7    2    2
 -0.004725906668587933    7    7    3    1
 -9.727404568754173e-07    7    7    3    2
 0.4098544716594623    7    7    3    3
 9.947129162644386e-07    7    7    4    1
 -0.004828079437841537    7    7    4    2
 -2.038879539520852e-08    7    7    4    3
 0.4108021634217228    7    7    4    4
 0.001264018725814505    7    7    5    1
 2.60860443284975e-07    7    7    5    2
 0.007899431227954203    7    7    5    3
 5.202151844332554e-09    7    7    5    4
 0.3782266832128501    7    7    5    5
 0.3784967946091112    7    7    6    6
 -2.812258829636828e-15    7    7    7    2
 1.338201657120083e-15    7    7    7    3
 -2.213931715594583e-14    7    7    7    4
 0.4111357521152205    7    7    7    7
 1.286052128909523e-14    8    1    1    1
 1.286307383807704e-14    8    1    2    2
 -1.914954104739795e-15    8    1    3    1
 1.575702439387082e-15    8    1    3    3
 -2.320268643969264e-15    8    1    4    2
 -3.026617447891684e-15    8    1    5    1
 -2.820947470143804e-15    8    1    5    2
 -2.375930974679275e-15    8    1    5    3
 -3.243363097638531e-15    8    1    5    4
 2.497084987460814e-15    8    1    5    5
 1.518765759295639e-07    8    1    6    1
 -0.000367666412791794    8    1    6    2
 8.816343733672085e-08    8    1    6    3
 -0.0004225829682931547    8    1    6    4
 -3.648153458764086e-09    8    1    6    5
 1.291110079913357e-15    8    1    6    6
 -4.951789534107327e-06    8    1    7    1
 0.01198740498660399    8    1    7    2
 -2.874484262567847e-06    8    1    7    3
 0.01377790574588069    8    1    7    4
 1.189448231603716e-07    8    1    7    5
 0.01220679818538476    8    1    8    1
 1.091162712208524e-14    8    2    2    1
 -1.91678317526509e-15    8    2    3    2
 -2.317945930682528e-15    8    2    4    1
 -2.826150476940646e-15    8    2    5    1
 -3.097148949686368e-15    8    2    5    2
 -3.270610836385376e-15    8    2    5    3
 -3.304235450590121e-15    8    2    5    4
 -0.0003683590802105283    8    2    6    1
 -1.518706684922102e-07    8    2    6    2
 -0.0004264092815741148    8    2    6    3
 -8.736984456635712e-08    8    2    6    4
 1.768623545728169e-05    8    2    6    5
 0.01200998873257725    8    2    7    1
 4.951593230833229e-06    8    2    7    2
 0.01390265896050251    8    2    7    3
 2.848606716962524e-06    8    2    7    4
 -0.0005766424664819298    8    2    7    5
 -3.729284705709399e-09    8    2    8    1
 0.01222915283813137    8    2    8    2
 9.163898081248373e-15    8    3    3    3
 1.472591905193826e-15    8    3    4    4
 -2.250075616717459e-15    8    3    5    1
 -3.192271187867503e-15    8    3    5    2
 1.236931572851945e-15    8    3    5    3
 -1.523348351641115e-14    8    3    5    4
 1.978204168874712e-14    8    3    5    5
 8.595257927730137e-08    8    3    6    1
 -0.000415683186722174    8    3    6    2
 1.681847969161219e-09    8    3    6    3
 -0.001983901110048396    8    3    6    4
 -2.659631890557088e-11    8    3    6    5
 8.378845463862773e-15    8    3    6    6
 -2.802401314724028e-06    8    3    7    1
 0.0135529450936888    8    3    7    2
 -5.483471423078067e-08    8    3    7    3
 0.06468316177956279    8    3    7    4
 8.699777799995843e-10    8    3    7    5
 0.01379373531847888    8    3    8    1
 2.841403484035742e-06    8    3    8    2
 0.06477012550429807    8    3    8    3
 -4.476454161354717e-14    8    4    2    1
 -3.437516849289641e-14    8    4    4    3
 -3.292073253297776e-15    8    4    5    1
 -3.248860337003094e-15    8    4    5    2
 -1.60141249583945e-14    8    4    5    3
 -9.610614531547091e-15    8    4    5    4
 1.209521061320915e-15    8    4    5    5
 -0.000428882642858905    8    4    6    1
 -8.866542608573152e-08    8    4    6    2
 -0.002087000482502659    8    4    6    3
 -1.670282323377272e-09    8    4    6    4
 7.428347737088994e-05    8    4    6    5
 0.0139833004941527    8    4    7    1
 2.890847927987735e-06    8    4    7    2
 0.06804461631681424    8    4    7    3
 5.445116132050313e-08    8    4    7    4
 -0.0024219403678904    8    4    7    5
 -1.146067638662678e-15    8    4    7    7
 -2.927833432308576e-06    8    4    8    1
 0.01422181305235084    8    4    8    2
 3.457576871399791e-09    8    4    8    3
 0.06907083839424193    8    4    8    4
 -3.959814804390586e-14    8    5    1    1
 -8.413857579695517e-14    8    5    2    1
 -3.966806509340959e-14    8    5    2    2
 1.21634112008717e-15    8    5    3    1
 1.139673922453692e-15    8    5    3    2
 -1.266563026395582e-14    8    5    3    3
 1.130812187324437e-15    8    5    4    1
 1.218030106506778e-15    8    5    4    2
 -5.617092648117949e-14    8    5    4    3
 -1.47450502222495e-14    8    5    4    4
 1.044017381976495e-14    8    5    5    3
 8.048807159593847e-15    8    5    5    4
 -6.655995256826682e-15    8    5    5    5
 -5.021165658836685e-09    8    5    6    1
 2.43399867745368e-05    8    5    6    2
 -4.891103599092349e-11    8    5    6    3
 0.0001300553964042542    8    5    6    4
 3.036291731843577e-11    8    5    6    5
 -1.051932190528601e-14    8    5    6    6
 1.637105742470872e-07    8    5    7    1
 -0.0007935815420814711    8    5    7    2
 1.597639812220579e-09    8    5    7    3
 -0.004240329421316116    8    5    7    4
 -9.89560816025157e-10    8    5    7    5
 2.011773847430413e-15    8    5    7    6
 -7.664185185267001e-14    8    5    7    7
 -0.000824835098086159    8    5    8    1
 -1.703045128787288e-07    8    5    8    2
 -0.003616266720919191    8    5    8    3
 -1.949646227129693e-09    8    5    8    4
 0.01559957911874417    8    5    8    5
 4.523248034059405e-06    8    6    1    1
 -0.01096040952336518    8    6    2    1
 -4.523163593873249e-06    8    6    2    2
 -3.070152442893396e-08    8    6    3    1
 0.0001484878312043356    8    6    3    2
 6.063466468429724e-09    8    6    3    3
 0.000147434233689005    8    6    4    1
 3.048209676015105e-08    8    6    4    2
 -0.007315844007944059    8    6    4    3
 -6.012579075434856e-09    8    6    4    4
 -4.412178243716864e-09    8    6    5    1
 2.137369449537045e-05    8    6    5    2
 -3.615808826631695e-10    8    6    5    3
 0.0009181088589326065    8    6    5    4
 4.025511669896662e-10    8    6    5    5
 6.37247058900716e-10    8    6    6    6
 1.401969021646939e-14    8    6    7    5
 -1.391952879324095e-09    8    6    7    6
 5.48143166278009e-10    8    6    7    7
 1.648989119242793e-15    8    6    8    5
 0.01662441249668477    8    6    8    6
 -0.0001474761190573521    8    7    1    1
 0.3573534682647551    8    7    2    1
 0.0001474733135985082    8    7    2    2
 1.000993992499607e-06    8    7    3    1
 -0.004841300989973202    8    7    3    2
 -1.977044671912053e-07    8    7    3    3
 -0.004806949470036595    8    7    4    1
 -9.93838342181569e-07    8    7    4    2
 0.2385259623693372    8    7    4    3
 1.960227063612783e-07    8    7    4    4
 1.438549993506875e-07    8    7    5    1
 -0.0006968684738711082    8    7    5    2
 1.179138250725844e-08    8    7    5    3
 -0.02993404436985132    8    7    5    4
 -1.313313963784058e-08    8    7    5    5
 1.379098277946346e-14    8    7    6    5
 -1.80021047749679e-08    8    7    6    6
 -1.504664429525349e-14    8    7    7    3
 -8.155073743740458e-15    8    7    7    4
 -4.583336838267452e-13    8    7    7    5
 2.674449646255595e-11    8    7    7    6
 -2.073340178111648e-08    8    7    7    7
 -2.283721517317328e-15    8    7    8    2
 -3.578128033860947e-14    8    7    8    4
 -5.356377280431005e-14    8    7    8    5
 -0.00695083477648924    8    7    8    6
 0.2430364152189825    8    7    8    7
 0.5342168473995539    8    8    1    1
 2.778782473174576e-08    8    8    2    1
 0.534216932538732    8    8    2    2
 -0.004897172375271556    8    8    3    1
 -1.00879328910765e-06    8    8    3    2
 0.4126451255568544    8    8    3    3
 1.026430659485652e-06    8    8    4    1
 -0.004985884190844256    8    8    4    2
 1.817055859449365e-08    8    8    4    3
 0.4139466872435778    8    8    4    4
 0.001006051804808241    8    8    5    1
 2.075297939501808e-07    8    8    5    2
 0.005773001895301148    8    8    5    3
 -4.707109214466491e-10    8    8    5    4
 0.3799901301466825    8    8    5    5
 0.3808891583245934    8    8    6    6
 -2.177870092852393e-15    8    8    7    2
 1.351391788130125e-15    8    8    7    3
 -2.192425035317649e-14    8    8    7    4
 -8.060397573511876e-15    8    8    7    5
 -0.001015695466728685    8    8    7    6
 0.4139737664576834    8    8    7    7
 -1.754889275035961e-15    8    8    8    3
 -1.529806515422093e-14    8    8    8    5
 -5.739284684908717e-10    8    8    8    6
 1.870108685216742e-08    8    8    8    7
 0.417058288994037    8    8    8    8
 -4.951789733974434e-06    9    1    6    1
 0.01198740498660403    9    1    6    2
 -2.874484408188151e-06    9    1    6    3
 0.01377790574588077    9    1    6    4
 1.189448599332923e-07    9    1    6    5
 -1.51876694053553e-07    9    1    7    1
 0.0003676664127918013    9    1    7    2
 -8.816352340038289e-08    9    1    7    3
 0.0004225829682931856    9    1    7    4
 3.648175190030792e-09    9    1    7    5
 -1.010359300775495e-15    9    1    7    6
 6.972706321184398e-13    9    1    8    2
 8.215131850296696e-13    9    1    8    4
 0.01220679818538375    9    1    9    1
 0.01200998873257729    9    2    6    1
 4.951593025975838e-06    9    2    6    2
 0.01390265896050251    9    2    6    3
 2.848606509313441e-06    9    2    6    4
 -0.0005766424664819232    9    2    6    5
 0.0003683590802105354    9    2    7    1
 1.518705474182564e-07    9    2    7    2
 0.0004264092815741027    9    2    7    3
 8.736972184701438e-08    9    2    7    4
 -1.768623545727454e-05    9    2    7    5
 6.972705063065177e-13    9    2    8    1
 8.131864970493377e-13    9    2    8    3
 -3.980188874017764e-14    9    2    8    5
 -3.726750858097475e-09    9    2    9    1
 0.01222915283813245    9    2    9    2
 -2.802401452028271e-06    9    3    6    1
 0.01355294509368882    9    3    6    2
 -5.483468143241228e-08    9    3    6    3
 0.06468316177956283    9    3    6    4
 8.702877132617636e-10    9    3    6    5
 -8.595266042656267e-08    9    3    7    1
 0.0004156831867221622    9    3    7    2
 -1.681828579233843e-09    9    3    7    3
 0.001983901110048405    9    3    7    4
 2.677947699979699e-11    9    3    7    5
 -4.417023173449887e-15    9    3    7    6
 8.131883278712495e-13    9    3    8    2
 4.045674807037694e-12    9    3    8    4
 0.0137937353184783    9    3    9    1
 2.841406439125288e-06    9    3    9    2
 0.06477012550429803    9    3    9    3
 0.01398330049415278    9    4    6    1
 2.890847724565112e-06    9    4    6    2
 0.0680446163168143    9    4    6    3
 5.445042064095851e-08    9    4    6    4
 -0.002421940367890403    9    4    6    5
 0.0004288826428589341    9    4    7    1
 8.866530585825849e-08    9    4    7    2
 0.002087000482502666    9    4    7    3
 1.669844562442382e-09    9    4    7    4
 -7.428347737086676e-05    9    4    7    5
 8.215113137236212e-13    9    4    8    1
 4.045651996105436e-12    9    4    8    3
 -1.980474374910759e-13    9    4    8    5
 -2.144943043071176e-15    9    4    8    6
 -2.927830446964746e-06    9    4    9    1
 0.01422181305235148    9    4    9    2
 3.472278639602771e-09    9    4    9    3
 0.06907083839424193    9    4    9    4
 1.142052217762011e-15    9    5    2    1
 1.63710613948393e-07    9    5    6    1
 -0.0007935815420814638    9    5    6    2
 1.597962065553689e-09    9    5    6    3
 -0.004240329421316114    9    5    6    4
 -9.89517841822835e-10    9    5    6    5
 1.997848910596e-15    9    5    6    6
 5.021189118994743e-09    9    5    7    1
 -2.433998677452557e-05    9    5    7    2
 4.910146860894944e-11    9    5    7    3
 -0.0001300553964042176    9    5    7    4
 -3.033751579366384e-11    9    5    7    5
 -3.306214535792474e-14    9    5    7    6
 -2.023664445862699e-15    9    5    7    7
 -3.980128224778398e-14    9    5    8    2
 -1.980384750940619e-13    9    5    8    4
 -3.881695122191038e-15    9    5    8    6
 -0.0008248350980861292    9    5    9    1
 -1.703046575079352e-07    9    5    9    2
 -0.003616266720919184    9    5    9    3
 -1.950365857252913e-09    9    5    9    4
 0.01559957911874416    9    5    9    5
 -0.0001474761219240373    9    6    1    1
 0.3573534682647558    9    6    2    1
 0.0001474733107316953    9    6    2    2
 1.00099407095416e-06    9    6    3    1
 -0.004841300989973215    9    6    3    2
 -1.977056773265715e-07    9    6    3    3
 -0.004806949470036639    9    6    4    1
 -9.938382645852223e-07    9    6    4    2
 0.2385259623693375    9    6    4    3
 1.960214392731529e-07    9    6    4    4
 1.438550243962198e-07    9    6    5    1
 -0.0006968684738711037    9    6    5    2
 1.179164423162123e-08    9    6    5    3
 -0.02993404436985134    9    6    5    4
 -1.313405394579304e-08    9    6    5    5
 1.376655126040936e-14    9    6    6    5
 -2.078817276099108e-08    9    6    6    6
 1.244566141326139e-15    9    6    7    1
 -8.956520439454748e-15    9    6    7    3
 -7.103981862812955e-15    9    6    7    4
 -4.241445127421781e-13    9    6    7    5
 -5.856107553981081e-11    9    6    7    6
 -1.795685961067409e-08    9    6    7    7
 -2.980261926993533e-14    9    6    8    4
 -4.950922939127271e-14    9    6    8    5
 -0.006950834776489248    9    6    8    6
 0.2102139691610102    9    6    8    7
 1.615424578731039e-08    9    6    8    8
 0.2430364152189829    9    6    9    6
 -4.52324972820253e-06    9    7    1    1
 0.01096040952336527    9    7    2    1
 4.523161899731908e-06    9    7    2    2
 3.070157078476543e-08    9    7    3    1
 -0.0001484878312043288    9    7    3    2
 -6.064181638877421e-09    9    7    3    3
 -0.0001474342336890175    9    7    4    1
 -3.048205090982121e-08    9    7    4    2
 0.007315844007944083    9    7    4    3
 6.011830282442525e-09    9    7    4    4
 4.412193041534985e-09    9    7    5    1
 -2.137369449536137e-05    9    7    5    2
 3.617355371124699e-10    9    7    5    3
 -0.0009181088589325744    9    7    5    4
 -4.030914877859521e-10    9    7    5    5
 -1.003387942975559e-15    9    7    6    1
 -5.176138756306029e-15    9    7    6    3
 -3.319488344423993e-14    9    7    6    5
 -5.547563726904029e-10    9    7    6    6
 -1.404066906089086e-14    9    7    7    5
 -1.389352189162117e-09    9    7    7    6
 -6.362636269484702e-10    9    7    7    7
 -1.463661266237052e-15    9    7    8    5
 0.01619803356128779    9    7    8    6
 0.00695083477648927    9    7    8    7
 4.971952892318079e-10    9    7    8    8
 -3.668918772797413e-15    9    7    9    4
 0.006950834776489273    9    7    9    6
 0.01662441249668475    9    7    9    7
 -8.833787254710604e-15    9    8    1    1
 2.15417194443145e-11    9    8    2    1
 8.946138662677023e-15    9    8    2    2
 -2.822818508120712e-13    9    8    3    2
 -2.800019345724103e-13    9    8    4    1
 1.453902786009242e-11    9    8    4    3
 -4.367306612357668e-14    9    8    5    2
 -1.832252492994066e-12    9    8    5    4
 -4.223008860677816e-15    9    8    6    4
 -3.899243994836023e-15    9    8    6    5
 -0.001015695466728684    9    8    6    6
 0.01654230406654528    9    8    7    6
 0.001015695466728726    9    8    7    7
 1.272347131241668e-09    9    8    8    6
 5.284712794658463e-11    9    8    8    7
 -3.797763168370855e-15    9    8    9    3
 -1.910163781775101e-15    9    8    9    5
 -2.534278230330987e-11    9    8    9    6
 1.276958727426306e-09    9    8    9    7
 0.01684860555740765    9    8    9    8
 0.5342168473995216    9    9    1    1
 2.78661064121352e-08    9    9    2    1
 0.5342169325387645    9    9    2    2
 -0.004897172375271357    9    9    3    1
 -1.008794314897017e-06    9    9    3    2
 0.4126451255568543    9    9    3    3
 1.026429641980598e-06    9    9    4    1
 -0.004985884190844474    9    9    4    2
 1.822339277728093e-08    9    9    4    3
 0.4139466872435777    9    9    4    4
 0.001006051804808274    9    9    5    1
 2.075296352549878e-07    9    9    5    2
 0.005773001895301141    9    9    5    3
 -4.773691899875118e-10    9    9    5    4
 0.3799901301466824    9    9    5    5
 0.4139737664576839    9    9    6    6
 1.347957992476076e-15    9    9    7    3
 -1.32577744705211e-14    9    9    7    4
 0.001015695466728726    9    9    7    6
 0.3808891583245928    9    9    7    7
 1.037126148542266e-15    9    9    8    1
 6.099405164908442e-15    9    9    8    3
 -1.149211798555835e-14    9    9    8    5
 -4.952059508145024e-10    9    9    8    6
 1.620202924440556e-08    9    9    8    7
 0.3833610778792215    9    9    8    8
 1.875379978604609e-08    9    9    9    6
 5.748525906137164e-10    9    9    9    7
 0.4170582889940367    9    9    9    9
 -1.025955133170602e-05   10    1    1    1
 0.01724869633496363   10    1    2    1
 3.977366621328571e-06   10    1    2    2
 1.105827288771368e-06   10    1    3    1
 -0.00267654625600527   10    1    3    2
 1.449914848820159e-07   10    1    3    3
 -0.00207052385792051   10    1    4    1
 -1.775719444768622e-09   10    1    4    2
 0.002160108345490112   10    1    4    3
 -2.071268751495081e-07   10    1    4    4
 4.812446612945844e-06   10    1    5    1
 -0.01163859045924421   10    1    5    2
 2.922918144192121e-06   10    1    5    3
 -0.01369800956049709   10    1    5    4
 1.626131554262426e-08   10    1    5    5
 1.614585846025841e-07   10    1    6    6
 2.753560964068257e-15   10    1    7    1
 -2.733431622305382e-15   10    1    7    2
 1.853824409599344e-15   10    1    7    3
 -3.219082315645938e-15   10    1    7    4
 -1.981905375543596e-15   10    1    7    5
 -8.980840337962964e-14   10    1    7    6
 1.614588682900679e-07   10    1    7    7
 -2.196064943679884e-14   10    1    8    2
 -2.630118555356336e-14   10    1    8    4
 -3.958150720885538e-05   10    1    8    6
 0.001290516458356499   10    1    8    7
 9.935624375422557e-08   10    1    8    8
 0.001290516458356511   10    1    9    6
 3.958150720885428e-05   10    1    9    7
 7.821684961128756e-14   10    1    9    8
 9.93565279788387e-08   10    1    9    9
 0.0130912307805087   10    1   10    1
 0.01522072672570065   10    2    1    1
 3.558959925375704e-06   10    2    2    1
 0.01521911839160734   10    2    2    2
 -0.002678053760724827   10    2    3    1
 -1.103941782592925e-06   10    2    3    2
 -0.0007115722155091991   10    2    3    3
 -1.776502704070795e-09   10    2    4    1
 -0.002066870356841791   10    2    4    2
 4.450002730368453e-07   10    2    4    3
 0.00101211509768696   10    2    4    4
 -0.0116831905003434   10    2    5    1
 -4.812119537724699e-06   10    2    5    2
 -0.01413730329747782   10    2    5    3
 -2.83215957433051e-06   10    2    5    4
 -7.903964842795127e-05   10    2    5    5
 -0.0007831881019912043   10    2    6    6
 -2.743868375667121e-15   10    2    7    1
 2.817318176956309e-15   10    2    7    2
 -3.322523920561373e-15   10    2    7    3
 2.578339715726446e-15   10    2    7    4
 -0.00078318810199115   10    2    7    7
 -2.198628908570794e-14   10    2    8    1
 -2.645406743083791e-14   10    2    8    3
 -8.167240444137431e-09   10    2    8    6
 2.662845716382885e-07   10    2    8    7