 &FCI NORB=  28,NELEC=14,MS2=0,
  ORBSYM=1,1,1,1,1,1,1,1,1,1,1,1,1,1,1,1,1,1,1,1,1,1,1,1,1,1,1,1,
  ISYM=1,
 &END
 2.189826419096149    1    1    1    1
 -0.0003694413815709155    1    1    2    1
 2.189857481591067    1    1    2    2
 -0.1977262620913436    1    1    3    1
 1.894155521010165e-05    1    1    3    2
 0.6113920371706395    1    1    3    3
 5.914271303411691e-05    1    1    4    1
 -0.2072789737636762    1    1    4    2
 -6.82629405148588e-05    1    1    4    3
 0.6204327502382501    1    1    4    4
 0.03255605986001697    1    1    5    1
 -2.320031009651545e-06    1    1    5    2
 0.005870718695977437    1    1    5    3
 2.202931168339753e-05    1    1    5    4
 0.5744326712377961    1    1    5    5
 0.5554858419879887    1    1    6    6
 -1.567888178315955e-15    1    1    7    2
 1.138918418378792e-15    1    1    7    4
 0.5554858419879896    1    1    7    7
 -1.224379337088997e-15    1    1    8    5
 -2.389891129748963e-05    1    1    8    6
 5.655530244256503e-05    1    1    8    7
 0.5755307681556702    1    1    8    8
 -5.655530242481199e-05    1    1    9    6
 -2.389891133808843e-05    1    1    9    7
 0.5755307681556691    1    1    9    9
 -1.444210652497582e-05    1    1   10    1
 0.04763885999693011    1    1   10    2
 1.498690309743631e-05    1    1   10    3
 -0.04967104509734833    1    1   10    4
 5.945433210119666e-05    1    1   10    5
 1.415335834161814e-15    1    1   10    6
 -2.998741231429666e-15    1    1   10    7
 0.6174063212949379    1    1   10   10
 3.213215189076351e-15    1    1   11    2
 -5.021487388172197e-15    1    1   11    4
 0.07419601847463445    1    1   11    6
 0.206329714208986    1    1   11    7
 3.27288631285643e-05    1    1   11    8
 -3.018683881935105e-05    1    1   11    9
 -1.779306638920604e-15    1    1   11   10
 0.5722113563630373    1    1   11   11
 -2.510546502152425e-15    1    1   12    2
 3.669554888533992e-15    1    1   12    4
 -1.803902003384135e-15    1    1   12    5
 0.206329714208986    1    1   12    6
 -0.07419601847463433    1    1   12    7
 -3.018683894074337e-05    1    1   12    8
 -3.272886323260487e-05    1    1   12    9
 0.5722113563630377    1    1   12   12
 -2.624058915051375e-05    1    1   13    1
 0.09425142742424399    1    1   13    2
 1.593227427598606e-05    1    1   13    3
 -0.1327912567566805    1    1   13    4
 -3.516634519440149e-05    1    1   13    5
 -4.483447263999507e-15    1    1   13    7
 -0.1822864586166364    1    1   13   10
 -3.047321119283339e-15    1    1   13   11
 2.424661687820735e-15    1    1   13   12
 0.5128675649088326    1    1   13   13
 -0.1643959188402285    1    1   14    1
 1.534983009302919e-05    1    1   14    2
 0.1717238397138448    1    1   14    3
 -3.614869743063644e-05    1    1   14    4
 -0.1087706624884459    1    1   14    5
 -1.383565170744857e-15    1    1   14    9
 -1.739065727448906e-06    1    1   14   10
 4.681411681771311e-05    1    1   14   13
 0.4903226721089656    1    1   14   14
 -1.121473228174353e-15    1    1   15    3
 3.499262793551166e-05    1    1   15    6
 1.239779134213726e-05    1    1   15    7
 -0.01343399887973803    1    1   15    8
 -0.2262095943694969    1    1   15    9
 3.88822464799151e-05    1    1   15   11
 4.75257289630011e-05    1    1   15   12
 0.5465377283559787    1    1   15   15
 -3.216506265062506e-15    1    1   16    1
 3.836612564517661e-15    1    1   16    3
 8.638131138032092e-15    1    1   16    5
 1.239779119059303e-05    1    1   16    6
 -3.499262800392799e-05    1    1   16    7
 -0.2262095943694969    1    1   16    8
 0.01343399887973801    1    1   16    9
 -4.752572893962804e-05    1    1   16   11
 3.888224649991318e-05    1    1   16   12
 0.546537728355978    1    1   16   16
 0.07259688345284818    1    1   17    1
 -7.820910742787272e-06    1    1   17    2
 -0.08616351323540251    1    1   17    3
 1.146899887660538e-05    1    1   17    4
 -0.1855734890773936    1    1   17    5
 -1.222960003077894e-15    1    1   17    6
 -9.420105377096508e-15    1    1   17    8
 -4.960237723305026e-05    1    1   17   10
 3.979975177682181e-05    1    1   17   13
 -0.01220372142790623    1    1   17   14
 0.6182221774123701    1    1   17   17
 -3.809520498401859e-05    1    1   18    1
 0.1318923050414877    1    1   18    2
 2.588274534046629e-05    1    1   18    3
 -0.1319980543453621    1    1   18    4
 9.271425668107465e-06    1    1   18    5
 1.696091719074492e-15    1    1   18    6
 -3.531209645118582e-15    1    1   18    7
 0.1256750297251302    1    1   18   10
 -0.01232948769848347    1    1   18   13
 2.578226053404856e-05    1    1   18   14
 -3.685823520300927e-05    1    1   18   17
 0.5038728782657267    1    1   18   18
 -0.005295855613230675    1    1   19    1
 5.362193518131038e-07    1    1   19    2
 0.01578655035958048    1    1   19    3
 3.024058254823617e-07    1    1   19    4
 0.01861928170330735    1    1   19    5
 -1.04043534983932e-05    1    1   19   10
 -1.228140100932845e-06    1    1   19   13
 0.0003049983353952982    1    1   19   14
 0.01553633091470322    1    1   19   17
 1.984934071025402e-05    1    1   19   18
 0.5098358888801235    1    1   19   19
 0.02836356834536236    1    1   20    6
 0.01321733393246733    1    1   20    7
 -1.31355886185216e-07    1    1   20    8
 3.62089079992186e-06    1    1   20    9
 -0.002156028001082704    1    1   20   11
 -0.002173868863091408    1    1   20   12
 8.499603752008811e-06    1    1   20   15
 -8.148669390136559e-07    1    1   20   16
 0.5090737626310678    1    1   20   20
 0.01321733393246722    1    1   21    6
 -0.02836356834536264    1    1   21    7
 3.620890799188614e-06    1    1   21    8
 1.313558594396831e-07    1    1   21    9
 0.002173868863090928    1    1   21   11
 -0.002156028001082944    1    1   21   12
 8.14866940205411e-07    1    1   21   15
 8.499603751998836e-06    1    1   21   16
 0.5090737626310686    1    1   21   21
 0.5056554079495037    1    1   22   22
 -2.410805690773377e-15    1    1   23    6
 -1.406374742963564e-15    1    1   23    7
 -1.216728577186192e-15    1    1   23   10
 0.5056554079495044    1    1   23   23
 -1.075818223394975e-08    1    1   24   22
 -5.019270326661607e-05    1    1   24   23
 0.5058835856455869    1    1   24   24
 -5.0192703266283e-05    1    1   25   22
 1.075818198414957e-08    1    1   25   23
 0.5058835856455861    1    1   25   25
 -3.212165595560101e-06    1    1   26    6
 -1.483965967148757e-06    1    1   26    7
 -0.0002061047597549121    1    1   26    8
 0.00625119302015058    1    1   26    9
 -6.127015437194794e-06    1    1   26   11
 -6.21866107133667e-06    1    1   26   12
 -0.00142291131603945    1    1   26   15
 0.0001316748740263184    1    1   26   16
 4.821164126039834e-05    1    1   26   20
 1.592337575823111e-07    1    1   26   21
 0.5152023269032395    1    1   26   26
 -1.483965962298904e-06    1    1   27    6
 3.21216559739804e-06    1    1   27    7
 0.006251193020151005    1    1   27    8
 0.0002061047597550023    1    1   27    9
 6.218661070926407e-06    1    1   27   11
 -6.127015437505526e-06    1    1   27   12
 -0.0001316748740262759    1    1   27   15
 -0.00142291131603942    1    1   27   16
 -1.592337575961889e-07    1    1   27   20
 4.821164126025956e-05    1    1   27   21
 0.5152023269032403    1    1   27   27
 -1.21490153114372e-05    1    1   28    1
 0.0420767166522634    1    1   28    2
 7.424879698871489e-06    1    1   28    3
 -0.03547758061178521    1    1   28    4
 4.015107100352466e-06    1    1   28    5
 -1.206884272502669e-15    1    1   28    7
 0.03910639434841372    1    1   28   10
 0.006334317095624018    1    1   28   13
 8.331030887012009e-06    1    1   28   14
 -1.73296006453624e-05    1    1   28   17
 -0.003083007799247348    1    1   28   18
 -4.388047499048753e-05    1    1   28   19
 0.529528309925218    1    1   28   28
 -0.0003694413815715937    2    1    1    1
 1.937851957534271    2    1    2    1
 0.0003694352838105445    2    1    2    2
 1.890664230560531e-05    2    1    3    1
 -0.1980975721682151    2    1    3    2
 -7.989814901434601e-08    2    1    3    3
 -0.2066992924508192    2    1    4    1
 -1.972379169572583e-05    2    1    4    2
 0.3580574147468961    2    1    4    3
 7.609042521425476e-08    2    1    4    4
 -2.70988614616108e-06    2    1    5    1
 0.02846093288553646    2    1    5    2
 8.613877340816892e-09    2    1    5    3
 -0.1155543397832077    2    1    5    4
 -1.1288013836505e-08    2    1    5    5
 -1.164561773595447e-15    2    1    6    3
 -8.303575260546597e-15    2    1    6    5
 -2.047043914246509e-08    2    1    6    6
 -1.668437200975506e-15    2    1    7    1
 3.052916440259151e-15    2    1    7    3
 1.094610262532483e-15    2    1    7    4
 1.828997031606543e-14    2    1    7    5
 -1.961875147472696e-13    2    1    7    6
 -2.047084946141324e-08    2    1    7    7
 -2.467796001477297e-15    2    1    8    4
 -2.759109367388892e-15    2    1    8    5
 0.125354606000252    2    1    8    6
 -0.2966439583591431    2    1    8    7
 1.689177775026867e-08    2    1    8    8
 0.2966439583591425    2    1    9    6
 0.1253546060002517    2    1    9    7
 -2.570518464425388e-13    2    1    9    8
 1.689177403125532e-08    2    1    9    9
 0.05193057661834753    2    1   10    1
 4.948604601827337e-06    2    1   10    2
 -0.07858078702378475    2    1   10    3
 -9.632185339755132e-09    2    1   10    4
 -0.3118470132955946    2    1   10    5
 2.494302613585749e-15    2    1   10    7
 -1.778958793791691e-14    2    1   10    8
 9.589440607847468e-09    2    1   10   10
 3.098165793391334e-15    2    1   11    1
 -2.595377219224674e-15    2    1   11    3
 1.14969578707404e-14    2    1   11    5
 -8.051457101197952e-09    2    1   11    6
 -2.239006674677321e-08    2    1   11    7
 -0.1716234039124622    2    1   11    8
 0.1582935531058781    2    1   11    9
 -5.538464401387707e-08    2    1   11   11
 -2.463249223932025e-15    2    1   12    1
 2.005913984878646e-15    2    1   12    3
 -9.150070919665735e-15    2    1   12    5
 -2.238986775683979e-08    2    1   12    6
 8.05137527249588e-09    2    1   12    7
 0.1582935531058782    2    1   12    8
 0.1716234039124621    2    1   12    9
 8.371179183869204e-15    2    1   12   11
 -5.538459936909468e-08    2    1   12   12
 0.09036390369735291    2    1   13    1
 8.585342241996551e-06    2    1   13    2
 -0.08333727608522366    2    1   13    3
 2.756196609887739e-08    2    1   13    4
 0.184293933770128    2    1   13    5
 -1.753634462196094e-15    2    1   13    7
 1.564065962694693e-14    2    1   13    8
 -1.141995563622213e-15    2    1   13    9
 9.988471736624861e-09    2    1   13   10
 -1.948181800734669e-15    2    1   13   11
 -1.148986007149487e-07    2    1   13   13
 1.550244378290021e-05    2    1   14    1
 -0.1628051346280991    2    1   14    2
 -6.116074825145937e-09    2    1   14    3
 0.1898393445361248    2    1   14    4
 -3.777460067854799e-08    2    1   14    5
 -2.680005548049977e-15    2    1   14    7
 0.009329835839317215    2    1   14   10
 -1.236397146307726e-14    2    1   14   11
 7.17847855251947e-15    2    1   14   12
 -0.2455889518616206    2    1   14   13
 9.407424550017226e-08    2    1   14   14
 -1.051520504646911e-15    2    1   15    4
 -0.18361322740482    2    1   15    6
 -0.0650536584180148    2    1   15    7
 -1.534326761027879e-09    2    1   15    8
 -2.583745344796528e-08    2    1   15    9
 1.073337564062763e-15    2    1   15   10
 -0.2039664390734582    2    1   15   11
 -0.2493079637523037    2    1   15   12
 1.536466031916434e-15    2    1   15   13
 1.584315710597847e-15    2    1   15   14
 5.83517983405047e-08    2    1   15   15
 -3.300340962467198e-15    2    1   16    2
 3.065486568212064e-15    2    1   16    4
 1.824751994398441e-15    2    1   16    5
 -0.06505365841801483    2    1   16    6
 0.1836132274048201    2    1   16    7
 -2.58374733770039e-08    2    1   16    8
 1.534512663617859e-09    2    1   16    9
 1.23437166242623e-15    2    1   16   10
 0.2493079637523032    2    1   16   11
 -0.2039664390734579    2    1   16   12
 -1.442752355629191e-14    2    1   16   13
 -4.685217058070235e-14    2    1   16   15
 5.835183131559221e-08    2    1   16   16
 -7.374497440069305e-06    2    1   17    1
 0.0772874341678688    2    1   17    2
 1.271184871930598e-08    2    1   17    3
 -0.06017343476337916    2    1   17    4
 -2.473992611210581e-09    2    1   17    5
 2.791881812603569e-15    2    1   17    6
 -3.739538622395593e-15    2    1   17    7
 -1.04365207154605e-15    2    1   17    9
 0.2602310554370265    2    1   17   10
 -1.598976968085174e-15    2    1   17   11
 1.470588911640254e-15    2    1   17   12
 -0.2087602409712392    2    1   17   13
 5.707343118852129e-08    2    1   17   14
 1.102534652312002e-15    2    1   17   15
 1.306035619981984e-08    2    1   17   17
 0.1338994986875819    2    1   18    1
 1.276699382643725e-05    2    1   18    2
 -0.1357097628250999    2    1   18    3
 -1.932025020851447e-08    2    1   18    4
 -0.04862603097226959    2    1   18    5
 -1.600883125328492e-15    2    1   18    8
 6.886275088460909e-09    2    1   18   10
 -1.976488418894626e-08    2    1   18   13
 -0.1352288477864434    2    1   18   14
 1.115419552676879e-15    2    1   18   15
 -4.484371439971364e-15    2    1   18   16
 0.1933593996737867    2    1   18   17
 1.078049396627256e-08    2    1   18   18
 5.195925694389279e-07    2    1   19    1
 -0.005470160028971272    2    1   19    2
 2.075104031857601e-09    2    1   19    3
 -0.001567203652702581    2    1   19    4
 2.056486290719778e-09    2    1   19    5
 -1.444484623526235e-15    2    1   19    7
 0.05456291969525788    2    1   19   10
 0.006444939867363267    2    1   19   13
 -6.758511653971733e-10    2    1   19   14
 -1.45687306055825e-09    2    1   19   17
 -0.1041144879553212    2    1   19   18
 -4.489349128555808e-09    2    1   19   19
 2.152265449846189e-09    2    1   20    6
 1.002956808316552e-09    2    1   20    7
 0.0006886693732839435    2    1   20    8
 -0.01898351817268338    2    1   20    9
 9.35006065627686e-12    2    1   20   11
 9.431185433311784e-12    2    1   20   12
 -0.04458286247445755    2    1   20   15
 0.004274211099529624    2    1   20   16
 -3.293954815852818e-08    2    1   20   20
 1.002943845378537e-09    2    1   21    6
 -2.152270492145232e-09    2    1   21    7
 -0.01898351817268351    2    1   21    8
 -0.000688669373284403    2    1   21    9
 -9.425559508238757e-12    2    1   21   11
 9.35461820852912e-12    2    1   21   12
 -0.004274211099529362    2    1   21   15
 -0.0445828624744578    2    1   21   16
 -1.165734175856535e-15    2    1   21   20
 -3.293954939365129e-08    2    1   21   21
 -1.209386557348268e-15    2    1   22   20
 -2.994769059324196e-15    2    1   22   21
 -2.62531736273941e-07    2    1   22   22
 1.787895794754608e-15    2    1   23    9
 1.224697676322043e-15    2    1   23   14
 3.928615681864947e-15    2    1   23   15
 -2.292860454171854e-15    2    1   23   17
 -1.087136984746964e-14    2    1   23   19
 6.897258672746925e-15    2    1   23   20
 -1.115989131346653e-15    2    1   23   21
 2.595146320061303e-15    2    1   23   22
 -2.625317499505009e-07    2    1   23   23
 1.764228272992476e-15    2    1   24   10
 1.020457259483393e-15    2    1   24   15
 -2.472333070748424e-15    2    1   24   18
 2.396948980548228e-14    2    1   24   20
 5.643084425034639e-05    2    1   24   22
 0.2632802253747606    2    1   24   23
 2.625619706098092e-07    2    1   24   24
 3.846405641845636e-15    2    1   25   20
 -4.399524592743515e-15    2    1   25   21
 0.2632802253747602    2    1   25   22
 -5.643084425033251e-05    2    1   25   23
 -2.706168622523819e-15    2    1   25   24
 2.625619571761106e-07    2    1   25   25
 0.01683991708042575    2    1   26    6
 0.007779755763242888    2    1   26    7
 -4.401474985264026e-11    2    1   26    8
 1.33480292899453e-09    2    1   26    9
 0.03213954471821173    2    1   26   11
 0.03262027615770208    2    1   26   12
 -1.992293638224119e-09    2    1   26   15
 1.843694376855998e-10    2    1   26   16
 -0.2528872330786709    2    1   26   20
 -0.000835237782770594    2    1   26   21
 3.874498262565254e-15    2    1   26   22
 2.31053526885915e-14    2    1   26   23
 6.650530598682532e-15    2    1   26   24
 -1.079985568846892e-15    2    1   26   25
 3.35078850915993e-08    2    1   26   26
 0.007779755763242682    2    1   27    6
 -0.01683991708042579    2    1   27    7
 1.33480278436196e-09    2    1   27    8
 4.400210095378485e-11    2    1   27    9
 -0.03262027615770213    2    1   27   11
 0.0321395447182118    2    1   27   12
 1.579852785810765e-15    2    1   27   13
 -1.843627702759199e-10    2    1   27   15
 -1.992295380970691e-09    2    1   27   16
 0.0008352377827705454    2    1   27   20
 -0.2528872330786713    2    1   27   21
 -4.519114358786763e-15    2    1   27   22
 -1.043486853958047e-15    2    1   27   24
 -2.981436916034849e-15    2    1   27   25
 1.200428645375944e-15    2    1   27   26
 3.350788656611425e-08    2    1   27   27
 0.04268962649445227    2    1   28    1
 4.069319166841981e-06    2    1   28    2
 -0.03892630132534381    2    1   28    3
 -4.674375383615335e-09    2    1   28    4
 -0.02105524104915582    2    1   28    5
 4.926738112528278e-10    2    1   28   10
 -4.764488649314572e-09    2    1   28   13
 -0.04370699046985546    2    1   28   14
 -2.023575971510024e-15    2    1   28   16
 0.09090346476552109    2    1   28   17
 3.961669908791876e-09    2    1   28   18
 0.2301697653871512    2    1   28   19
 1.053480451927317e-14    2    1   28   24
 7.512340333137857e-09    2    1   28   28
 2.189857481591068    2    2    1    1
 0.0003694352838109943    2    2    2    1
 2.189888829403837    2    2    2    2
 -0.1977319302031653    2    2    3    1
 -5.659090243423691e-05    2    2    3    2
 0.6113912125628098    2    2    3    3
 -1.966845949401976e-05    2    2    4    1
 -0.2072838554491223    2    2    4    2
 6.825949441221124e-05    2    2    4    3
 0.6204354848007571    2    2    4    4
 0.03255175097611888    2    2    5    1
 8.531326211182814e-06    2    2    5    2
 0.005863242134193319    2    2    5    3
 -2.202999133693207e-05    2    2    5    4
 0.5744324725815967    2    2    5    5
 0.5554857981088288    2    2    6    6
 -1.569759686173276e-15    2    2    7    2
 1.137469782866453e-15    2    2    7    4
 0.5554857981088295    2    2    7    7
 -1.226084802308993e-15    2    2    8    5
 2.389709958301855e-05    2    2    8    6
 -5.655101501766716e-05    2    2    8    7
 0.5755315336747001    2    2    8    8
 5.655101503538203e-05    2    2    9    6
 2.389709954239882e-05    2    2    9    7
 0.575531533674699    2    2    9    9
 5.357641508372625e-06    2    2   10    1
 0.04764595859110707    2    2   10    2
 -1.497488571833947e-05    2    2   10    3
 -0.04966434182023632    2    2   10    4
 -5.944870414787985e-05    2    2   10    5
 1.413824898040009e-15    2    2   10    6
 -2.997286291490748e-15    2    2   10    7
 0.6174028511294658    2    2   10   10
 3.212959956470879e-15    2    2   11    2
 -5.021463569514072e-15    2    2   11    4
 0.07419657512788866    2    2   11    6
 0.2063312621910642    2    2   11    7
 -3.270881277828004e-05    2    2   11    8
 3.01683457891801e-05    2    2   11    9
 -1.778944984330562e-15    2    2   11   10
 0.5722123844607736    2    2   11   11
 -2.504375958952512e-15    2    2   12    2
 3.673527871807414e-15    2    2   12    4
 -1.80647736732039e-15    2    2   12    5
 0.2063312621910642    2    2   12    6
 -0.07419657512788864    2    2   12    7
 3.016834566782341e-05    2    2   12    8
 3.270881267420652e-05    2    2   12    9
 0.5722123844607742    2    2   12   12
 8.214268091938682e-06    2    2   13    1
 0.09424800568786268    2    2   13    2
 -1.584309751638253e-05    2    2   13    3
 -0.1327959904300821    2    2   13    4
 3.510243135223937e-05    2    2   13    5
 -4.483690858952017e-15    2    2   13    7
 -0.1822867217767001    2    2   13   10
 -3.047944611553785e-15    2    2   13   11
 2.42213798308452e-15    2    2   13   12
 0.5128720982258946    2    2   13   13
 -0.1643978191461806    2    2   14    1
 -4.672574036067111e-05    2    2   14    2
 0.1717262678923972    2    2   14    3
 3.62344707519843e-05    2    2   14    4
 -0.1087737767753916    2    2   14    5
 -1.381903561437287e-15    2    2   14    9
 1.818274170245292e-06    2    2   14   10
 -4.682561921888329e-05    2    2   14   13
 0.4903263849129505    2    2   14   14
 -1.123837688637184e-15    2    2   15    3
 -3.501660518161041e-05    2    2   15    6
 -1.240628623812827e-05    2    2   15    7
 -0.01343404695597642    2    2   15    8
 -0.2262104039055467    2    2   15    9
 -3.888739005890383e-05    2    2   15   11
 -4.753201590591437e-05    2    2   15   12
 0.5465385608778884    2    2   15   15
 -3.220461030979342e-15    2    2   16    1
 3.834419745020953e-15    2    2   16    3
 8.638959152168214e-15    2    2   16    5
 -1.240628638964818e-05    2    2   16    6
 3.501660511317936e-05    2    2   16    7
 -0.2262104039055468    2    2   16    8
 0.01343404695597639    2    2   16    9
 4.753201592924401e-05    2    2   16   11
 -3.888739003887715e-05    2    2   16   12
 0.5465385608778878    2    2   16   16
 0.07260578277197383    2    2   17    1
 2.164858817235837e-05    2    2   17    2
 -0.08615993065222737    2    2   17    3
 -1.147431495359912e-05    2    2   17    4
 -0.1855729756519439    2    2   17    5
 -1.220926988038471e-15    2    2   17    6
 -9.420812693002371e-15    2    2   17    8
 4.962019442490072e-05    2    2   17   10
 -3.97976961147402e-05    2    2   17   13
 -0.01219986441031162    2    2   17   14
 0.6182170640056476    2    2   17   17
 1.295824004695276e-05    2    2   18    1
 0.1318987911190056    2    2   18    2
 -2.586154640270841e-05    2    2   18    3
 -0.1319978202504846    2    2   18    4
 -9.269020466596417e-06    2    2   18    5
 1.694768565401998e-15    2    2   18    6
 -3.5305948104583e-15    2    2   18    7
 0.1256701293490818    2    2   18   10
 -0.01232653682562189    2    2   18   13
 -2.577866541191628e-05    2    2   18   14
 3.686708087266653e-05    2    2   18   17
 0.5038690154807384    2    2   18   18
 -0.005296012102627908    2    2   19    1
 -1.54949349422134e-06    2    2   19    2
 0.01578523224267465    2    2   19    3
 -2.951478424090877e-07    2    2   19    4
 0.01861382398694769    2    2   19    5
 1.039974772512955e-05    2    2   19   10
 1.229228278094071e-06    2    2   19   13
 0.0003056247686739804    2    2   19   14
 0.01553904938076479    2    2   19   17
 -1.984810122380998e-05    2    2   19   18
 0.5098346685749775    2    2   19   19
 0.02835933176464399    2    2   20    6
 0.01321535969913375    2    2   20    7
 1.312243972527351e-07    2    2   20    8
 -3.617266980571361e-06    2    2   20    9
 -0.002157664227972919    2    2   20   11
 -0.002175518629554458    2    2   20   12
 -8.499236925802248e-06    2    2   20   15
 8.14831771917858e-07    2    2   20   16
 0.509072502464722    2    2   20   20
 0.01321535969913365    2    2   21    6
 -0.02835933176464428    2    2   21    7
 -3.617266981305041e-06    2    2   21    8
 -1.312244239968586e-07    2    2   21    9
 0.002175518629553971    2    2   21   11
 -0.002157664227973147    2    2   21   12
 -8.148317707252356e-07    2    2   21   15
 -8.499236925803549e-06    2    2   21   16
 0.5090725024647226    2    2   21   21
 0.5056552401995866    2    2   22   22
 -2.407316452595655e-15    2    2   23    6
 -1.40753564843979e-15    2    2   23    7
 -1.216879433368379e-15    2    2   23   10
 0.5056552401995873    2    2   23   23
 1.075813321760322e-08    2    2   24   22
 5.019247538870508e-05    2    2   24   23
 0.5058834355764559    2    2   24   24
 5.019247538902427e-05    2    2   25   22
 -1.075813341189225e-08    2    2   25   23
 0.505883435576455    2    2   25   25
 3.208666500261869e-06    2    2   26    6
 1.482349440680517e-06    2    2   26    7
 -0.0002062650739975897    2    2   26    8
 0.006256055378865703    2    2   26    9
 6.127356968092107e-06    2    2   26   11
 6.219007710357542e-06    2    2   26   12
 -0.001425532360481888    2    2   26   15
 0.0001319174230122533    2    2   26   16
 -4.821083040484897e-05    2    2   26   20
 -1.592310793357976e-07    2    2   26   21
 0.515201411441968    2    2   26   26
 1.482349445535575e-06    2    2   27    6
 -3.208666498422195e-06    2    2   27    7
 0.006256055378866122    2    2   27    8
 0.0002062650739976691    2    2   27    9
 -6.219007710756962e-06    2    2   27   11
 6.127356967768147e-06    2    2   27   12
 -0.0001319174230122074    2    2   27   15
 -0.001425532360481862    2    2   27   16
 1.592310792941642e-07    2    2   27   20
 -4.821083040502938e-05    2    2   27   21
 0.5152014114419686    2    2   27   27
 4.127736972287456e-06    2    2   28    1
 0.04207906046627512    2    2   28    2
 -7.417190936243392e-06    2    2   28    3
 -0.03547799474354479    2    2   28    4
 -4.012970682418411e-06    2    2   28    5
 -1.206164312346547e-15    2    2   28    7
 0.03911112811688981    2    2   28   10
 0.006332468943685842    2    2   28   13
 -8.333851330986734e-06    2    2   28   14
 1.733065753730788e-05    2    2   28   17
 -0.003082439696581965    2    2   28   18
 4.388013442280236e-05    2    2   28   19
 0.5295271014485471    2    2   28   28
 -0.1977262620913436    3    1    1    1
 1.890664230560547e-05    3    1    2    1
 -0.1977319302031652    3    1    2    2
 0.03070674115459913    3    1    3    1
 -7.179387383019231e-09    3    1    3    2
 -0.007624621297447272    3    1    3    3
 -6.102822213390381e-06    3    1    4    1
 0.03200807944417258    3    1    4    2
 8.144934171601834e-07    3    1    4    3
 -0.008962804283160597    3    1    4    4
 -0.004023258221400769    3    1    5    1
 1.570058924144278e-09    3    1    5    2
 0.001978220656176823    3    1    5    3
 -2.732375956036695e-07    3    1    5    4
 -0.004611473880594472    3    1    5    5
 -0.00424358966640318    3    1    6    6
 -0.004243589666403186    3    1    7    7
 1.816564093460511e-07    3    1    8    6
 -4.298787117780047e-07    3    1    8    7
 -0.00492962940093643    3    1    8    8
 4.298787112483592e-07    3    1    9    6
 1.816564105575319e-07    3    1    9    7
 -0.004929629400936412    3    1    9    9
 1.642719206091972e-06    3    1   10    1
 -0.008620353557211283    3    1   10    2
 -1.397513769082774e-07    3    1   10    3
 0.0004179369345819162    3    1   10    4
 -4.562221944218044e-07    3    1   10    5
 -0.005585272605556059    3    1   10   10
 -0.002057196169430367    3    1   11    6
 -0.005720801552922952    3    1   11    7
 -4.581005740258198e-07    3    1   11    8
 4.225202730502385e-07    3    1   11    9
 -0.00827438610281909    3    1   11   11
 -0.005720801552922952    3    1   12    6
 0.002057196169430368    3    1   12    7
 4.225202762470374e-07    3    1   12    8
 4.581005767500297e-07    3    1   12    9
 -0.008274386102819092    3    1   12   12
 2.585548721433412e-06    3    1   13    1
 -0.01352198628065106    3    1   13    2
 -3.784295754004874e-07    3    1   13    3
 0.005207667995443977    3    1   13    4
 5.638652716457022e-07    3    1   13    5
 0.004693018249324751    3    1   13   10
 -0.008143560095648065    3    1   13   13
 0.02505758616693266    3    1   14    1
 -1.165127074823909e-09    3    1   14    2
 -0.006688367187378346    3    1   14    3
 7.184921876935119e-07    3    1   14    4
 0.003476675340342102    3    1   14    5
 9.178147379704597e-08    3    1   14   10
 -6.041392038435426e-07    3    1   14   13
 -0.007013452186265393    3    1   14   14
 -5.299600708185364e-07    3    1   15    6
 -1.877633892242384e-07    3    1   15    7
 0.0003691732561621791    3    1   15    8
 0.006216356966834997    3    1   15    9
 -5.061564927879368e-07    3    1   15   11
 -6.186745489145581e-07    3    1   15   12
 -0.007959370453261441    3    1   15   15
 -1.877633848949591e-07    3    1   16    6
 5.299600727865472e-07    3    1   16    7
 0.006216356966835001    3    1   16    8
 -0.0003691732561621761    3    1   16    9
 6.186745483078881e-07    3    1   16   11
 -5.061564933355582e-07    3    1   16   12
 -0.007959370453261425    3    1   16   16
 -0.01269171067003404    3    1   17    1
 7.306906251801974e-10    3    1   17    2
 0.002852887677742476    3    1   17    3
 -1.723055962741486e-07    3    1   17    4
 0.005343831347565091    3    1   17    5
 6.748813899587251e-07    3    1   17   10
 -5.282711589214722e-07    3    1   17   13
 -0.0007459561936775372    3    1   17   14
 -0.008403558683267051    3    1   17   17
 3.997997789329863e-06    3    1   18    1
 -0.02096617103729946    3    1   18    2
 -5.080166361584547e-07    3    1   18    3
 0.005140765946816644    3    1   18    4
 -1.120087679811334e-07    3    1   18    5
 -0.003500297071174425    3    1   18   10
 -1.940339345461576e-05    3    1   18   13
 -3.306185957181792e-07    3    1   18   14
 4.790018549787428e-07    3    1   18   17
 -0.00474289046789541    3    1   18   18
 0.0008064294622120969    3    1   19    1
 2.871476895650474e-10    3    1   19    2
 -0.0001283709542658992    3    1   19    3
 3.609623723075122e-08    3    1   19    4
 0.0009905164961679276    3    1   19    5
 8.283895353345037e-08    3    1   19   10
 -5.817927498645046e-08    3    1   19   13
 -0.0003894394958508139    3    1   19   14
 -0.0005187297576795364    3    1   19   17
 -1.877419146547151e-08    3    1   19   18
 -0.0004918090386656063    3    1   19   19
 0.0003146761124654003    3    1   20    6